# graphene
4794 atoms 
6701 bonds 
14704 angles 
33493 dihedrals 
1386 impropers 

11 atom types 
16 bond types 
40 angle types 
114 dihedral types 
21 improper types 

0.0	200.0	 xlo xhi 
0.0	175.0	 ylo yhi 
0.0	3.4827	 zlo zhi 

 Masses 
 
1	12.011   C1
2	1.008    H1
3	12.011   C2
4	15.999   O1
5	1.008    H2
6	15.999   O2
7	15.999   O3
8	12.011   C3
9	15.999   O4
10	15.999   O5
11	12.011   C4

 Pair Coeffs 
 
1	0.07	3.55 
2	0.03	2.42
3	0.066	3.5
4	0.17	3.12
5	0.0	0.0
6	0.14	2.9
7	0.17	3.07
8	0.105	3.75
9	0.21	2.96
10	0.17	3.0
11	0.07	3.55

 Bond Coeffs 
 
1	469.0	1.4
2	469.0	1.4
3	469.0	1.4
4	317.0	1.51
5	317.0	1.51
6	268.0	1.529
7	450.0	1.364
8	367.0	1.08
9	400.0	1.49
10	553.0	0.945
11	570.0	1.229
12	450.0	1.364
13	553.0	0.945
14	320.0	1.41
15	553.0	0.945
16	320.0	1.41

 Angle Coeffs 
 
1	85.0	120.0
2	63.0	120.0
3	85.0	120.0
4	70.0	120.0
5	70.0	120.0
6	63.0	120.0
7	63.0	120.0
8	63.0	120.0
9	63.0	120.0
10	35.0	120.0
11	70.0	120.0
12	70.0	120.0
13	35.0	117.0
14	50.0	109.5
15	50.0	109.5
16	40.0	109.5
17	63.0	114.0
18	63.0	114.0
19	50.0	109.5
20	40.0	109.5
21	70.0	119.7
22	70.0	120.0
23	35.0	120.0
24	58.35	112.7
25	50.0	109.5
26	50.0	109.5
27	70.0	130.0
28	70.0	120.0
29	50.0	109.5
30	70.0	123.0
31	63.0	120.0
32	40.0	109.5
33	70.0	130.0
34	35.0	113.0
35	80.0	121.0
36	80.0	120.4
37	70.0	120.0
38	35.0	113.0
39	55.0	108.5
40	60.0	109.5

 Dihedral Coeffs 
 
1	0.0	7.25	0.0	0.0
2	0.0	7.25	0.0	0.0
3	0.0	7.25	0.0	0.0
4	0.0	7.25	0.0	0.0
5	0.0	7.25	0.0	0.0
6	0.0	7.25	0.0	0.0
7	0.0	7.25	0.0	0.0
8	0.0	7.25	0.0	0.0
9	0.0	7.25	0.0	0.0
10	0.0	7.25	0.0	0.0
11	0.0	7.25	0.0	0.0
12	0.0	7.25	0.0	0.0
13	0.0	7.25	0.0	0.0
14	0.0	7.25	0.0	0.0
15	0.0	7.25	0.0	0.0
16	0.0	7.25	0.0	0.0
17	0.0	7.25	0.0	0.0
18	0.0	7.25	0.0	0.0
19	0.0	7.25	0.0	0.0
20	0.0	7.25	0.0	0.0
21	0.0	0.0	0.0	0.0
22	0.0	0.0	0.0	0.0
23	0.0	0.0	0.0	0.0
24	0.0	0.0	0.468	0.0
25	0.0	-8.0	0.0	0.0
26	0.0	0.0	0.468	0.0
27	0.0	7.25	0.0	0.0
28	0.0	0.0	0.0	0.0
29	0.0	-8.0	0.0	0.0
30	0.5	0.0	0.0	0.0
31	0.0	0.0	0.0	0.0
32	0.5	0.0	0.0	0.0
33	0.0	0.0	0.0	0.0
34	0.5	0.0	0.0	0.0
35	0.0	0.0	0.0	0.0
36	0.0	7.25	0.0	0.0
37	0.0	7.25	0.0	0.0
38	0.0	7.25	0.0	0.0
39	1.3	-0.05	0.2	0.0
40	1.3	-0.05	0.2	0.0
41	1.711	-0.5	0.663	0.0
42	-0.55	0.0	0.0	0.0
43	-4.344	-1.714	0.0	0.0
44	-4.344	-1.714	0.0	0.0
45	4.319	0.0	0.0	0.0
46	0.0	0.0	0.366	0.0
47	-1.552	0.0	0.0	0.0
48	9.508	0.0	0.0	0.0
49	2.817	-0.169	0.543	0.0
50	1.711	-0.5	0.663	0.0
51	0.0	-8.0	0.0	0.0
52	1.711	-0.5	0.663	0.0
53	0.0	7.25	0.0	0.0
54	0.0	7.25	0.0	0.0
55	0.0	0.0	0.0	0.0
56	0.0	0.0	0.468	0.0
57	0.0	7.25	0.0	0.0
58	0.0	0.0	0.0	0.0
59	0.0	0.0	0.0	0.0
60	0.0	0.0	0.0	0.0
61	0.0	0.0	0.0	0.0
62	-4.344	-1.714	0.0	0.0
63	1.711	-0.5	0.663	0.0
64	0.0	0.0	0.0	0.0
65	0.0	0.0	0.0	0.0
66	0.0	0.0	0.0	0.0
67	0.0	0.0	0.366	0.0
68	-4.344	-1.714	0.0	0.0
69	0.0	0.0	0.0	0.0
70	0.0	0.0	0.318	0.0
71	0.0	-8.0	0.0	0.0
72	0.0	0.0	0.468	0.0
73	0.0	0.0	0.468	0.0
74	0.0	-8.0	0.0	0.0
75	0.0	7.25	0.0	0.0
76	0.0	7.25	0.0	0.0
77	0.0	7.25	0.0	0.0
78	0.0	7.25	0.0	0.0
79	0.0	7.25	0.0	0.0
80	0.0	0.0	0.0	0.0
81	0.5	0.0	0.0	0.0
82	0.0	-8.0	0.0	0.0
83	2.817	-0.169	0.543	0.0
84	1.711	-0.5	0.663	0.0
85	0.0	-8.0	0.0	0.0
86	0.0	7.25	0.0	0.0
87	0.0	7.25	0.0	0.0
88	0.0	7.25	0.0	0.0
89	0.0	7.25	0.0	0.0
90	0.0	7.25	0.0	0.0
91	0.0	7.25	0.0	0.0
92	0.0	7.25	0.0	0.0
93	0.0	7.25	0.0	0.0
94	0.0	0.0	0.0	0.0
95	0.0	7.25	0.0	0.0
96	-4.344	-1.714	0.0	0.0
97	0.0	7.25	0.0	0.0
98	0.0	1.682	0.0	0.0
99	0.0	1.682	0.0	0.0
100	0.0	2.1	0.0	0.0
101	0.0	2.1	0.0	0.0
102	0.9	0.23	-0.505	0.0
103	0.9	0.23	-0.505	0.0
104	0.0	2.1	0.0	0.0
105	0.0	2.1	0.0	0.0
106	0.0	1.682	0.0	0.0
107	0.0	5.0	0.0	0.0
108	4.0	5.0	0.0	0.0
109	-0.356	-0.174	0.492	0.0
110	-0.9	0.0	0.0	0.0
111	0.65	-0.25	0.67	0.0
112	-0.521	-2.018	1.996	0.0
113	-0.521	-2.018	1.996	0.0
114	-0.9	0.0	0.0	0.0

 Improper Coeffs 
 
1	5.0	180.0
2	5.0	180.0
3	5.0	180.0
4	5.0	180.0
5	5.0	180.0
6	5.0	180.0
7	5.0	180.0
8	5.0	180.0
9	5.0	180.0
10	5.0	180.0
11	5.0	180.0
12	5.0	180.0
13	5.0	180.0
14	5.0	180.0
15	5.0	180.0
16	5.0	180.0
17	5.0	180.0
18	5.0	180.0
19	5.0	180.0
20	5.0	180.0
21	21.0	180.0

 Atoms 
 
1	 1	 11	 -0.115	 0.0	 0.0	 0.0
 2	 1	 11	 0.15	 1.225252741274224	 -0.7074	 0.0
 3	 1	 1	 0.0	 2.450505482548448	 0.0	 0.0
 4	 1	 11	 0.15	 3.675758223822672	 -0.7074	 0.0
 5	 1	 1	 0.0	 4.901010965096896	 0.0	 0.0
 6	 1	 1	 -0.115	 6.12626370637112	 -0.7074	 0.0
 7	 1	 1	 0.0	 7.351516447645344	 0.0	 0.0
 8	 1	 1	 -0.115	 8.576769188919569	 -0.7074	 0.0
 9	 1	 1	 0.0	 9.802021930193792	 0.0	 0.0
 10	 1	 11	 0.15	 11.027274671468016	 -0.7074	 0.0
 11	 1	 1	 0.0	 12.25252741274224	 0.0	 0.0
 12	 1	 11	 0.15	 13.477780154016463	 -0.7074	 0.0
 13	 1	 1	 0.0	 14.703032895290686	 0.0	 0.0
 14	 1	 11	 -0.115	 15.928285636564912	 -0.7074	 0.0
 15	 1	 1	 0.0	 17.153538377839137	 0.0	 0.0
 16	 1	 11	 -0.115	 18.378791119113362	 -0.7074	 0.0
 17	 1	 1	 0.0	 19.604043860387584	 0.0	 0.0
 18	 1	 1	 -0.115	 20.82929660166181	 -0.7074	 0.0
 19	 1	 1	 0.0	 22.05454934293603	 0.0	 0.0
 20	 1	 1	 -0.115	 23.279802084210257	 -0.7074	 0.0
 21	 1	 1	 0.0	 24.50505482548448	 0.0	 0.0
 22	 1	 11	 0.15	 25.730307566758704	 -0.7074	 0.0
 23	 1	 1	 0.0	 26.955560308032926	 0.0	 0.0
 24	 1	 11	 0.15	 28.180813049307154	 -0.7074	 0.0
 25	 1	 1	 0.0	 29.406065790581376	 0.0	 0.0
 26	 1	 1	 -0.115	 30.6313185318556	 -0.7074	 0.0
 27	 1	 1	 0.0	 31.856571273129823	 0.0	 0.0
 28	 1	 11	 0.15	 33.08182401440405	 -0.7074	 0.0
 29	 1	 1	 0.0	 34.307076755678274	 0.0	 0.0
 30	 1	 1	 -0.115	 35.5323294969525	 -0.7074	 0.0
 31	 1	 1	 0.0	 36.757582238226725	 0.0	 0.0
 32	 1	 1	 -0.115	 37.98283497950094	 -0.7074	 0.0
 33	 1	 1	 0.0	 39.20808772077517	 0.0	 0.0
 34	 1	 11	 0.15	 40.433340462049394	 -0.7074	 0.0
 35	 1	 1	 0.0	 41.65859320332362	 0.0	 0.0
 36	 1	 11	 -0.115	 42.883845944597844	 -0.7074	 0.0
 37	 1	 1	 0.0	 44.10909868587207	 0.0	 0.0
 38	 1	 1	 -0.115	 45.33435142714629	 -0.7074	 0.0
 39	 1	 1	 0.0	 46.55960416842051	 0.0	 0.0
 40	 1	 1	 -0.115	 47.78485690969474	 -0.7074	 0.0
 41	 1	 1	 0.0	 49.010109650968964	 0.0	 0.0
 42	 1	 1	 -0.115	 50.23536239224318	 -0.7074	 0.0
 43	 1	 1	 0.0	 51.46061513351741	 0.0	 0.0
 44	 1	 1	 -0.115	 52.68586787479163	 -0.7074	 0.0
 45	 1	 1	 0.0	 53.91112061606586	 0.0	 0.0
 46	 1	 11	 0.15	 55.136373357340084	 -0.7074	 0.0
 47	 1	 1	 0.0	 56.36162609861431	 0.0	 0.0
 48	 1	 11	 0.15	 57.58687883988853	 -0.7074	 0.0
 49	 1	 1	 0.0	 58.81213158116275	 0.0	 0.0
 50	 1	 1	 -0.115	 60.03738432243698	 -0.7074	 0.0
 51	 1	 1	 0.0	 61.2626370637112	 0.0	 0.0
 52	 1	 1	 -0.115	 62.48788980498543	 -0.7074	 0.0
 53	 1	 3	 0.2	 63.713142546259654	 0.0	 0.0
 54	 1	 1	 -0.115	 64.93839528753387	 -0.7074	 0.0
 55	 1	 1	 0.0	 66.1636480288081	 0.0	 0.0
 56	 1	 1	 -0.115	 67.38890077008232	 -0.7074	 0.0
 57	 1	 3	 0.2	 68.61415351135655	 0.0	 0.0
 58	 1	 11	 -0.115	 69.83940625263077	 -0.7074	 0.0
 59	 1	 1	 0.0	 71.064658993905	 0.0	 0.0
 60	 1	 1	 -0.115	 72.28991173517922	 -0.7074	 0.0
 61	 1	 1	 0.0	 73.51516447645345	 0.0	 0.0
 62	 1	 11	 0.15	 74.74041721772765	 -0.7074	 0.0
 63	 1	 1	 0.0	 75.96566995900189	 0.0	 0.0
 64	 1	 11	 -0.115	 77.1909227002761	 -0.7074	 0.0
 65	 1	 1	 0.0	 78.41617544155034	 0.0	 0.0
 66	 1	 11	 -0.115	 79.64142818282455	 -0.7074	 0.0
 67	 1	 1	 0.0	 80.86668092409879	 0.0	 0.0
 68	 1	 11	 -0.115	 82.091933665373	 -0.7074	 0.0
 69	 1	 1	 0.0	 83.31718640664724	 0.0	 0.0
 70	 1	 11	 -0.115	 84.54243914792146	 -0.7074	 0.0
 71	 1	 1	 0.0	 85.76769188919569	 0.0	 0.0
 72	 1	 11	 -0.115	 86.99294463046989	 -0.7074	 0.0
 73	 1	 1	 0.0	 88.21819737174413	 0.0	 0.0
 74	 1	 11	 0.15	 89.44345011301834	 -0.7074	 0.0
 75	 1	 1	 0.0	 90.66870285429258	 0.0	 0.0
 76	 1	 1	 -0.115	 91.8939555955668	 -0.7074	 0.0
 77	 1	 1	 0.0	 93.11920833684103	 0.0	 0.0
 78	 1	 1	 -0.115	 94.34446107811524	 -0.7074	 0.0
 79	 1	 1	 0.0	 95.56971381938948	 0.0	 0.0
 80	 1	 1	 -0.115	 96.7949665606637	 -0.7074	 0.0
 81	 1	 11	 -0.115	 98.02021930193793	 0.0	 0.0
 82	 1	 1	 -0.115	 0.0	 1.4148	 0.0
 83	 1	 1	 0.0	 1.225252741274224	 2.1222000000000003	 0.0
 84	 1	 1	 0.0	 2.450505482548448	 1.4148	 0.0
 85	 1	 1	 0.0	 3.675758223822672	 2.1222000000000003	 0.0
 86	 1	 1	 0.0	 4.901010965096896	 1.4148	 0.0
 87	 1	 3	 0.2	 6.12626370637112	 2.1222000000000003	 0.0
 88	 1	 3	 0.2	 7.351516447645344	 1.4148	 0.0
 89	 1	 3	 0.265	 8.576769188919569	 2.1222000000000003	 0.0
 90	 1	 3	 0.265	 9.802021930193792	 1.4148	 0.0
 91	 1	 3	 0.265	 11.027274671468016	 2.1222000000000003	 0.0
 92	 1	 3	 0.2	 12.25252741274224	 1.4148	 0.0
 93	 1	 3	 0.2	 13.477780154016463	 2.1222000000000003	 0.0
 94	 1	 1	 0.0	 14.703032895290686	 1.4148	 0.0
 95	 1	 3	 0.2	 15.928285636564912	 2.1222000000000003	 0.0
 96	 1	 1	 0.0	 17.153538377839137	 1.4148	 0.0
 97	 1	 1	 0.0	 18.378791119113362	 2.1222000000000003	 0.0
 98	 1	 1	 0.0	 19.604043860387584	 1.4148	 0.0
 99	 1	 1	 0.0	 20.82929660166181	 2.1222000000000003	 0.0
 100	 1	 1	 0.0	 22.05454934293603	 1.4148	 0.0
 101	 1	 1	 0.0	 23.279802084210257	 2.1222000000000003	 0.0
 102	 1	 1	 0.0	 24.50505482548448	 1.4148	 0.0
 103	 1	 1	 0.0	 25.730307566758704	 2.1222000000000003	 0.0
 104	 1	 1	 0.0	 26.955560308032926	 1.4148	 0.0
 105	 1	 1	 0.0	 28.180813049307154	 2.1222000000000003	 0.0
 106	 1	 1	 0.0	 29.406065790581376	 1.4148	 0.0
 107	 1	 1	 0.0	 30.6313185318556	 2.1222000000000003	 0.0
 108	 1	 1	 0.0	 31.856571273129823	 1.4148	 0.0
 109	 1	 1	 0.0	 33.08182401440405	 2.1222000000000003	 0.0
 110	 1	 1	 0.0	 34.307076755678274	 1.4148	 0.0
 111	 1	 1	 0.0	 35.5323294969525	 2.1222000000000003	 0.0
 112	 1	 1	 0.0	 36.757582238226725	 1.4148	 0.0
 113	 1	 1	 0.0	 37.98283497950094	 2.1222000000000003	 0.0
 114	 1	 1	 0.0	 39.20808772077517	 1.4148	 0.0
 115	 1	 1	 0.0	 40.433340462049394	 2.1222000000000003	 0.0
 116	 1	 1	 0.0	 41.65859320332362	 1.4148	 0.0
 117	 1	 1	 0.0	 42.883845944597844	 2.1222000000000003	 0.0
 118	 1	 1	 0.0	 44.10909868587207	 1.4148	 0.0
 119	 1	 1	 0.0	 45.33435142714629	 2.1222000000000003	 0.0
 120	 1	 1	 0.0	 46.55960416842051	 1.4148	 0.0
 121	 1	 1	 0.0	 47.78485690969474	 2.1222000000000003	 0.0
 122	 1	 1	 0.0	 49.010109650968964	 1.4148	 0.0
 123	 1	 1	 0.0	 50.23536239224318	 2.1222000000000003	 0.0
 124	 1	 1	 0.0	 51.46061513351741	 1.4148	 0.0
 125	 1	 1	 0.0	 52.68586787479163	 2.1222000000000003	 0.0
 126	 1	 1	 0.0	 53.91112061606586	 1.4148	 0.0
 127	 1	 1	 0.0	 55.136373357340084	 2.1222000000000003	 0.0
 128	 1	 1	 0.0	 56.36162609861431	 1.4148	 0.0
 129	 1	 1	 0.0	 57.58687883988853	 2.1222000000000003	 0.0
 130	 1	 1	 0.0	 58.81213158116275	 1.4148	 0.0
 131	 1	 1	 0.0	 60.03738432243698	 2.1222000000000003	 0.0
 132	 1	 1	 0.0	 61.2626370637112	 1.4148	 0.0
 133	 1	 1	 0.0	 62.48788980498543	 2.1222000000000003	 0.0
 134	 1	 3	 0.2	 63.713142546259654	 1.4148	 0.0
 135	 1	 3	 0.265	 64.93839528753387	 2.1222000000000003	 0.0
 136	 1	 3	 0.265	 66.1636480288081	 1.4148	 0.0
 137	 1	 3	 0.265	 67.38890077008232	 2.1222000000000003	 0.0
 138	 1	 3	 0.2	 68.61415351135655	 1.4148	 0.0
 139	 1	 3	 0.2	 69.83940625263077	 2.1222000000000003	 0.0
 140	 1	 1	 0.0	 71.064658993905	 1.4148	 0.0
 141	 1	 1	 0.0	 72.28991173517922	 2.1222000000000003	 0.0
 142	 1	 1	 0.0	 73.51516447645345	 1.4148	 0.0
 143	 1	 1	 0.0	 74.74041721772765	 2.1222000000000003	 0.0
 144	 1	 1	 0.0	 75.96566995900189	 1.4148	 0.0
 145	 1	 1	 0.0	 77.1909227002761	 2.1222000000000003	 0.0
 146	 1	 1	 0.0	 78.41617544155034	 1.4148	 0.0
 147	 1	 1	 0.0	 79.64142818282455	 2.1222000000000003	 0.0
 148	 1	 1	 0.0	 80.86668092409879	 1.4148	 0.0
 149	 1	 1	 0.0	 82.091933665373	 2.1222000000000003	 0.0
 150	 1	 1	 0.0	 83.31718640664724	 1.4148	 0.0
 151	 1	 1	 0.0	 84.54243914792146	 2.1222000000000003	 0.0
 152	 1	 1	 0.0	 85.76769188919569	 1.4148	 0.0
 153	 1	 1	 0.0	 86.99294463046989	 2.1222000000000003	 0.0
 154	 1	 1	 0.0	 88.21819737174413	 1.4148	 0.0
 155	 1	 1	 0.0	 89.44345011301834	 2.1222000000000003	 0.0
 156	 1	 1	 0.0	 90.66870285429258	 1.4148	 0.0
 157	 1	 1	 0.0	 91.8939555955668	 2.1222000000000003	 0.0
 158	 1	 1	 0.0	 93.11920833684103	 1.4148	 0.0
 159	 1	 1	 0.0	 94.34446107811524	 2.1222000000000003	 0.0
 160	 1	 1	 0.0	 95.56971381938948	 1.4148	 0.0
 161	 1	 1	 0.0	 96.7949665606637	 2.1222000000000003	 0.0
 162	 1	 11	 0.15	 98.02021930193793	 1.4148	 0.0
 163	 1	 11	 0.15	 0.0	 4.244400000000001	 0.0
 164	 1	 1	 0.0	 1.225252741274224	 3.537000000000001	 0.0
 165	 1	 1	 0.0	 2.450505482548448	 4.244400000000001	 0.0
 166	 1	 1	 0.0	 3.675758223822672	 3.537000000000001	 0.0
 167	 1	 1	 0.0	 4.901010965096896	 4.244400000000001	 0.0
 168	 1	 3	 0.2	 6.12626370637112	 3.537000000000001	 0.0
 169	 1	 3	 0.2	 7.351516447645344	 4.244400000000001	 0.0
 170	 1	 3	 0.265	 8.576769188919569	 3.537000000000001	 0.0
 171	 1	 3	 0.2	 9.802021930193792	 4.244400000000001	 0.0
 172	 1	 3	 0.265	 11.027274671468016	 3.537000000000001	 0.0
 173	 1	 3	 0.265	 12.25252741274224	 4.244400000000001	 0.0
 174	 1	 3	 0.265	 13.477780154016463	 3.537000000000001	 0.0
 175	 1	 3	 0.2	 14.703032895290686	 4.244400000000001	 0.0
 176	 1	 3	 0.2	 15.928285636564912	 3.537000000000001	 0.0
 177	 1	 1	 0.0	 17.153538377839137	 4.244400000000001	 0.0
 178	 1	 1	 0.0	 18.378791119113362	 3.537000000000001	 0.0
 179	 1	 3	 0.2	 19.604043860387584	 4.244400000000001	 0.0
 180	 1	 3	 0.2	 20.82929660166181	 3.537000000000001	 0.0
 181	 1	 3	 0.2	 22.05454934293603	 4.244400000000001	 0.0
 182	 1	 1	 0.0	 23.279802084210257	 3.537000000000001	 0.0
 183	 1	 1	 0.0	 24.50505482548448	 4.244400000000001	 0.0
 184	 1	 1	 0.0	 25.730307566758704	 3.537000000000001	 0.0
 185	 1	 3	 0.2	 26.955560308032926	 4.244400000000001	 0.0
 186	 1	 1	 0.0	 28.180813049307154	 3.537000000000001	 0.0
 187	 1	 1	 0.0	 29.406065790581376	 4.244400000000001	 0.0
 188	 1	 1	 0.0	 30.6313185318556	 3.537000000000001	 0.0
 189	 1	 1	 0.0	 31.856571273129823	 4.244400000000001	 0.0
 190	 1	 1	 0.0	 33.08182401440405	 3.537000000000001	 0.0
 191	 1	 1	 0.0	 34.307076755678274	 4.244400000000001	 0.0
 192	 1	 1	 0.0	 35.5323294969525	 3.537000000000001	 0.0
 193	 1	 1	 0.0	 36.757582238226725	 4.244400000000001	 0.0
 194	 1	 1	 0.0	 37.98283497950094	 3.537000000000001	 0.0
 195	 1	 1	 0.0	 39.20808772077517	 4.244400000000001	 0.0
 196	 1	 1	 0.0	 40.433340462049394	 3.537000000000001	 0.0
 197	 1	 1	 0.0	 41.65859320332362	 4.244400000000001	 0.0
 198	 1	 1	 0.0	 42.883845944597844	 3.537000000000001	 0.0
 199	 1	 1	 0.0	 44.10909868587207	 4.244400000000001	 0.0
 200	 1	 1	 0.0	 45.33435142714629	 3.537000000000001	 0.0
 201	 1	 1	 0.0	 46.55960416842051	 4.244400000000001	 0.0
 202	 1	 1	 0.0	 47.78485690969474	 3.537000000000001	 0.0
 203	 1	 1	 0.0	 49.010109650968964	 4.244400000000001	 0.0
 204	 1	 1	 0.0	 50.23536239224318	 3.537000000000001	 0.0
 205	 1	 1	 0.0	 51.46061513351741	 4.244400000000001	 0.0
 206	 1	 1	 0.0	 52.68586787479163	 3.537000000000001	 0.0
 207	 1	 1	 0.0	 53.91112061606586	 4.244400000000001	 0.0
 208	 1	 1	 0.0	 55.136373357340084	 3.537000000000001	 0.0
 209	 1	 1	 0.0	 56.36162609861431	 4.244400000000001	 0.0
 210	 1	 1	 0.0	 57.58687883988853	 3.537000000000001	 0.0
 211	 1	 1	 0.0	 58.81213158116275	 4.244400000000001	 0.0
 212	 1	 1	 0.0	 60.03738432243698	 3.537000000000001	 0.0
 213	 1	 1	 0.0	 61.2626370637112	 4.244400000000001	 0.0
 214	 1	 1	 0.0	 62.48788980498543	 3.537000000000001	 0.0
 215	 1	 3	 0.2	 63.713142546259654	 4.244400000000001	 0.0
 216	 1	 1	 0.0	 64.93839528753387	 3.537000000000001	 0.0
 217	 1	 3	 0.2	 66.1636480288081	 4.244400000000001	 0.0
 218	 1	 3	 0.2	 67.38890077008232	 3.537000000000001	 0.0
 219	 1	 3	 0.265	 68.61415351135655	 4.244400000000001	 0.0
 220	 1	 3	 0.2	 69.83940625263077	 3.537000000000001	 0.0
 221	 1	 1	 0.0	 71.064658993905	 4.244400000000001	 0.0
 222	 1	 1	 0.0	 72.28991173517922	 3.537000000000001	 0.0
 223	 1	 1	 0.0	 73.51516447645345	 4.244400000000001	 0.0
 224	 1	 1	 0.0	 74.74041721772765	 3.537000000000001	 0.0
 225	 1	 1	 0.0	 75.96566995900189	 4.244400000000001	 0.0
 226	 1	 1	 0.0	 77.1909227002761	 3.537000000000001	 0.0
 227	 1	 1	 0.0	 78.41617544155034	 4.244400000000001	 0.0
 228	 1	 1	 0.0	 79.64142818282455	 3.537000000000001	 0.0
 229	 1	 1	 0.0	 80.86668092409879	 4.244400000000001	 0.0
 230	 1	 1	 0.0	 82.091933665373	 3.537000000000001	 0.0
 231	 1	 1	 0.0	 83.31718640664724	 4.244400000000001	 0.0
 232	 1	 1	 0.0	 84.54243914792146	 3.537000000000001	 0.0
 233	 1	 1	 0.0	 85.76769188919569	 4.244400000000001	 0.0
 234	 1	 1	 0.0	 86.99294463046989	 3.537000000000001	 0.0
 235	 1	 1	 0.0	 88.21819737174413	 4.244400000000001	 0.0
 236	 1	 1	 0.0	 89.44345011301834	 3.537000000000001	 0.0
 237	 1	 1	 0.0	 90.66870285429258	 4.244400000000001	 0.0
 238	 1	 1	 0.0	 91.8939555955668	 3.537000000000001	 0.0
 239	 1	 1	 0.0	 93.11920833684103	 4.244400000000001	 0.0
 240	 1	 1	 0.0	 94.34446107811524	 3.537000000000001	 0.0
 241	 1	 1	 0.0	 95.56971381938948	 4.244400000000001	 0.0
 242	 1	 1	 0.0	 96.7949665606637	 3.537000000000001	 0.0
 243	 1	 11	 -0.115	 98.02021930193793	 4.244400000000001	 0.0
 244	 1	 1	 -0.115	 0.0	 5.6592	 0.0
 245	 1	 1	 0.0	 1.225252741274224	 6.3666	 0.0
 246	 1	 1	 0.0	 2.450505482548448	 5.6592	 0.0
 247	 1	 1	 0.0	 3.675758223822672	 6.3666	 0.0
 248	 1	 1	 0.0	 4.901010965096896	 5.6592	 0.0
 249	 1	 1	 0.0	 6.12626370637112	 6.3666	 0.0
 250	 1	 1	 0.0	 7.351516447645344	 5.6592	 0.0
 251	 1	 1	 0.0	 8.576769188919569	 6.3666	 0.0
 252	 1	 3	 0.2	 9.802021930193792	 5.6592	 0.0
 253	 1	 3	 0.265	 11.027274671468016	 6.3666	 0.0
 254	 1	 1	 0.0	 12.25252741274224	 5.6592	 0.0
 255	 1	 3	 0.2	 13.477780154016463	 6.3666	 0.0
 256	 1	 3	 0.2	 14.703032895290686	 5.6592	 0.0
 257	 1	 1	 0.0	 15.928285636564912	 6.3666	 0.0
 258	 1	 1	 0.0	 17.153538377839137	 5.6592	 0.0
 259	 1	 3	 0.2	 18.378791119113362	 6.3666	 0.0
 260	 1	 3	 0.2	 19.604043860387584	 5.6592	 0.0
 261	 1	 3	 0.265	 20.82929660166181	 6.3666	 0.0
 262	 1	 3	 0.265	 22.05454934293603	 5.6592	 0.0
 263	 1	 3	 0.265	 23.279802084210257	 6.3666	 0.0
 264	 1	 3	 0.2	 24.50505482548448	 5.6592	 0.0
 265	 1	 3	 0.2	 25.730307566758704	 6.3666	 0.0
 266	 1	 3	 0.2	 26.955560308032926	 5.6592	 0.0
 267	 1	 3	 0.2	 28.180813049307154	 6.3666	 0.0
 268	 1	 3	 0.2	 29.406065790581376	 5.6592	 0.0
 269	 1	 3	 0.2	 30.6313185318556	 6.3666	 0.0
 270	 1	 1	 0.0	 31.856571273129823	 5.6592	 0.0
 271	 1	 1	 0.0	 33.08182401440405	 6.3666	 0.0
 272	 1	 1	 0.0	 34.307076755678274	 5.6592	 0.0
 273	 1	 1	 0.0	 35.5323294969525	 6.3666	 0.0
 274	 1	 1	 0.0	 36.757582238226725	 5.6592	 0.0
 275	 1	 1	 0.0	 37.98283497950094	 6.3666	 0.0
 276	 1	 1	 0.0	 39.20808772077517	 5.6592	 0.0
 277	 1	 1	 0.0	 40.433340462049394	 6.3666	 0.0
 278	 1	 1	 0.0	 41.65859320332362	 5.6592	 0.0
 279	 1	 1	 0.0	 42.883845944597844	 6.3666	 0.0
 280	 1	 1	 0.0	 44.10909868587207	 5.6592	 0.0
 281	 1	 3	 0.2	 45.33435142714629	 6.3666	 0.0
 282	 1	 1	 0.0	 46.55960416842051	 5.6592	 0.0
 283	 1	 1	 0.0	 47.78485690969474	 6.3666	 0.0
 284	 1	 1	 0.0	 49.010109650968964	 5.6592	 0.0
 285	 1	 1	 0.0	 50.23536239224318	 6.3666	 0.0
 286	 1	 1	 0.0	 51.46061513351741	 5.6592	 0.0
 287	 1	 1	 0.0	 52.68586787479163	 6.3666	 0.0
 288	 1	 1	 0.0	 53.91112061606586	 5.6592	 0.0
 289	 1	 1	 0.0	 55.136373357340084	 6.3666	 0.0
 290	 1	 1	 0.0	 56.36162609861431	 5.6592	 0.0
 291	 1	 1	 0.0	 57.58687883988853	 6.3666	 0.0
 292	 1	 1	 0.0	 58.81213158116275	 5.6592	 0.0
 293	 1	 1	 0.0	 60.03738432243698	 6.3666	 0.0
 294	 1	 1	 0.0	 61.2626370637112	 5.6592	 0.0
 295	 1	 3	 0.2	 62.48788980498543	 6.3666	 0.0
 296	 1	 3	 0.2	 63.713142546259654	 5.6592	 0.0
 297	 1	 3	 0.265	 64.93839528753387	 6.3666	 0.0
 298	 1	 3	 0.265	 66.1636480288081	 5.6592	 0.0
 299	 1	 3	 0.265	 67.38890077008232	 6.3666	 0.0
 300	 1	 3	 0.2	 68.61415351135655	 5.6592	 0.0
 301	 1	 3	 0.2	 69.83940625263077	 6.3666	 0.0
 302	 1	 1	 0.0	 71.064658993905	 5.6592	 0.0
 303	 1	 1	 0.0	 72.28991173517922	 6.3666	 0.0
 304	 1	 1	 0.0	 73.51516447645345	 5.6592	 0.0
 305	 1	 1	 0.0	 74.74041721772765	 6.3666	 0.0
 306	 1	 1	 0.0	 75.96566995900189	 5.6592	 0.0
 307	 1	 1	 0.0	 77.1909227002761	 6.3666	 0.0
 308	 1	 1	 0.0	 78.41617544155034	 5.6592	 0.0
 309	 1	 1	 0.0	 79.64142818282455	 6.3666	 0.0
 310	 1	 1	 0.0	 80.86668092409879	 5.6592	 0.0
 311	 1	 1	 0.0	 82.091933665373	 6.3666	 0.0
 312	 1	 1	 0.0	 83.31718640664724	 5.6592	 0.0
 313	 1	 1	 0.0	 84.54243914792146	 6.3666	 0.0
 314	 1	 1	 0.0	 85.76769188919569	 5.6592	 0.0
 315	 1	 1	 0.0	 86.99294463046989	 6.3666	 0.0
 316	 1	 1	 0.0	 88.21819737174413	 5.6592	 0.0
 317	 1	 1	 0.0	 89.44345011301834	 6.3666	 0.0
 318	 1	 1	 0.0	 90.66870285429258	 5.6592	 0.0
 319	 1	 1	 0.0	 91.8939555955668	 6.3666	 0.0
 320	 1	 1	 0.0	 93.11920833684103	 5.6592	 0.0
 321	 1	 1	 0.0	 94.34446107811524	 6.3666	 0.0
 322	 1	 1	 0.0	 95.56971381938948	 5.6592	 0.0
 323	 1	 1	 0.0	 96.7949665606637	 6.3666	 0.0
 324	 1	 1	 -0.115	 98.02021930193793	 5.6592	 0.0
 325	 1	 11	 0.15	 0.0	 8.488800000000001	 0.0
 326	 1	 1	 0.0	 1.225252741274224	 7.781400000000001	 0.0
 327	 1	 1	 0.0	 2.450505482548448	 8.488800000000001	 0.0
 328	 1	 1	 0.0	 3.675758223822672	 7.781400000000001	 0.0
 329	 1	 3	 0.2	 4.901010965096896	 8.488800000000001	 0.0
 330	 1	 3	 0.2	 6.12626370637112	 7.781400000000001	 0.0
 331	 1	 3	 0.2	 7.351516447645344	 8.488800000000001	 0.0
 332	 1	 3	 0.2	 8.576769188919569	 7.781400000000001	 0.0
 333	 1	 3	 0.2	 9.802021930193792	 8.488800000000001	 0.0
 334	 1	 3	 0.265	 11.027274671468016	 7.781400000000001	 0.0
 335	 1	 1	 0.0	 12.25252741274224	 8.488800000000001	 0.0
 336	 1	 3	 0.2	 13.477780154016463	 7.781400000000001	 0.0
 337	 1	 3	 0.2	 14.703032895290686	 8.488800000000001	 0.0
 338	 1	 1	 0.0	 15.928285636564912	 7.781400000000001	 0.0
 339	 1	 3	 0.2	 17.153538377839137	 8.488800000000001	 0.0
 340	 1	 3	 0.2	 18.378791119113362	 7.781400000000001	 0.0
 341	 1	 3	 0.265	 19.604043860387584	 8.488800000000001	 0.0
 342	 1	 1	 0.0	 20.82929660166181	 7.781400000000001	 0.0
 343	 1	 3	 0.2	 22.05454934293603	 8.488800000000001	 0.0
 344	 1	 1	 0.0	 23.279802084210257	 7.781400000000001	 0.0
 345	 1	 3	 0.265	 24.50505482548448	 8.488800000000001	 0.0
 346	 1	 3	 0.265	 25.730307566758704	 7.781400000000001	 0.0
 347	 1	 1	 0.0	 26.955560308032926	 8.488800000000001	 0.0
 348	 1	 3	 0.265	 28.180813049307154	 7.781400000000001	 0.0
 349	 1	 3	 0.265	 29.406065790581376	 8.488800000000001	 0.0
 350	 1	 3	 0.2	 30.6313185318556	 7.781400000000001	 0.0
 351	 1	 3	 0.2	 31.856571273129823	 8.488800000000001	 0.0
 352	 1	 3	 0.2	 33.08182401440405	 7.781400000000001	 0.0
 353	 1	 3	 0.2	 34.307076755678274	 8.488800000000001	 0.0
 354	 1	 1	 0.0	 35.5323294969525	 7.781400000000001	 0.0
 355	 1	 1	 0.0	 36.757582238226725	 8.488800000000001	 0.0
 356	 1	 1	 0.0	 37.98283497950094	 7.781400000000001	 0.0
 357	 1	 1	 0.0	 39.20808772077517	 8.488800000000001	 0.0
 358	 1	 1	 0.0	 40.433340462049394	 7.781400000000001	 0.0
 359	 1	 1	 0.0	 41.65859320332362	 8.488800000000001	 0.0
 360	 1	 3	 0.2	 42.883845944597844	 7.781400000000001	 0.0
 361	 1	 3	 0.2	 44.10909868587207	 8.488800000000001	 0.0
 362	 1	 3	 0.2	 45.33435142714629	 7.781400000000001	 0.0
 363	 1	 3	 0.2	 46.55960416842051	 8.488800000000001	 0.0
 364	 1	 1	 0.0	 47.78485690969474	 7.781400000000001	 0.0
 365	 1	 1	 0.0	 49.010109650968964	 8.488800000000001	 0.0
 366	 1	 1	 0.0	 50.23536239224318	 7.781400000000001	 0.0
 367	 1	 1	 0.0	 51.46061513351741	 8.488800000000001	 0.0
 368	 1	 1	 0.0	 52.68586787479163	 7.781400000000001	 0.0
 369	 1	 1	 0.0	 53.91112061606586	 8.488800000000001	 0.0
 370	 1	 1	 0.0	 55.136373357340084	 7.781400000000001	 0.0
 371	 1	 1	 0.0	 56.36162609861431	 8.488800000000001	 0.0
 372	 1	 1	 0.0	 57.58687883988853	 7.781400000000001	 0.0
 373	 1	 1	 0.0	 58.81213158116275	 8.488800000000001	 0.0
 374	 1	 1	 0.0	 60.03738432243698	 7.781400000000001	 0.0
 375	 1	 1	 0.0	 61.2626370637112	 8.488800000000001	 0.0
 376	 1	 3	 0.2	 62.48788980498543	 7.781400000000001	 0.0
 377	 1	 3	 0.2	 63.713142546259654	 8.488800000000001	 0.0
 378	 1	 3	 0.2	 64.93839528753387	 7.781400000000001	 0.0
 379	 1	 3	 0.2	 66.1636480288081	 8.488800000000001	 0.0
 380	 1	 3	 0.2	 67.38890077008232	 7.781400000000001	 0.0
 381	 1	 3	 0.2	 68.61415351135655	 8.488800000000001	 0.0
 382	 1	 1	 0.0	 69.83940625263077	 7.781400000000001	 0.0
 383	 1	 1	 0.0	 71.064658993905	 8.488800000000001	 0.0
 384	 1	 1	 0.0	 72.28991173517922	 7.781400000000001	 0.0
 385	 1	 1	 0.0	 73.51516447645345	 8.488800000000001	 0.0
 386	 1	 1	 0.0	 74.74041721772765	 7.781400000000001	 0.0
 387	 1	 1	 0.0	 75.96566995900189	 8.488800000000001	 0.0
 388	 1	 1	 0.0	 77.1909227002761	 7.781400000000001	 0.0
 389	 1	 1	 0.0	 78.41617544155034	 8.488800000000001	 0.0
 390	 1	 1	 0.0	 79.64142818282455	 7.781400000000001	 0.0
 391	 1	 1	 0.0	 80.86668092409879	 8.488800000000001	 0.0
 392	 1	 1	 0.0	 82.091933665373	 7.781400000000001	 0.0
 393	 1	 1	 0.0	 83.31718640664724	 8.488800000000001	 0.0
 394	 1	 1	 0.0	 84.54243914792146	 7.781400000000001	 0.0
 395	 1	 1	 0.0	 85.76769188919569	 8.488800000000001	 0.0
 396	 1	 1	 0.0	 86.99294463046989	 7.781400000000001	 0.0
 397	 1	 1	 0.0	 88.21819737174413	 8.488800000000001	 0.0
 398	 1	 1	 0.0	 89.44345011301834	 7.781400000000001	 0.0
 399	 1	 1	 0.0	 90.66870285429258	 8.488800000000001	 0.0
 400	 1	 1	 0.0	 91.8939555955668	 7.781400000000001	 0.0
 401	 1	 1	 0.0	 93.11920833684103	 8.488800000000001	 0.0
 402	 1	 1	 0.0	 94.34446107811524	 7.781400000000001	 0.0
 403	 1	 1	 0.0	 95.56971381938948	 8.488800000000001	 0.0
 404	 1	 1	 0.0	 96.7949665606637	 7.781400000000001	 0.0
 405	 1	 11	 0.15	 98.02021930193793	 8.488800000000001	 0.0
 406	 1	 11	 0.15	 0.0	 9.9036	 0.0
 407	 1	 1	 0.0	 1.225252741274224	 10.611	 0.0
 408	 1	 1	 0.0	 2.450505482548448	 9.9036	 0.0
 409	 1	 3	 0.2	 3.675758223822672	 10.611	 0.0
 410	 1	 3	 0.2	 4.901010965096896	 9.9036	 0.0
 411	 1	 3	 0.265	 6.12626370637112	 10.611	 0.0
 412	 1	 3	 0.265	 7.351516447645344	 9.9036	 0.0
 413	 1	 3	 0.265	 8.576769188919569	 10.611	 0.0
 414	 1	 3	 0.265	 9.802021930193792	 9.9036	 0.0
 415	 1	 3	 0.2	 11.027274671468016	 10.611	 0.0
 416	 1	 3	 0.265	 12.25252741274224	 9.9036	 0.0
 417	 1	 1	 0.0	 13.477780154016463	 10.611	 0.0
 418	 1	 3	 0.2	 14.703032895290686	 9.9036	 0.0
 419	 1	 3	 0.265	 15.928285636564912	 10.611	 0.0
 420	 1	 3	 0.2	 17.153538377839137	 9.9036	 0.0
 421	 1	 3	 0.265	 18.378791119113362	 10.611	 0.0
 422	 1	 1	 0.0	 19.604043860387584	 9.9036	 0.0
 423	 1	 3	 0.265	 20.82929660166181	 10.611	 0.0
 424	 1	 3	 0.2	 22.05454934293603	 9.9036	 0.0
 425	 1	 1	 0.0	 23.279802084210257	 10.611	 0.0
 426	 1	 3	 0.265	 24.50505482548448	 9.9036	 0.0
 427	 1	 3	 0.2	 25.730307566758704	 10.611	 0.0
 428	 1	 3	 0.2	 26.955560308032926	 9.9036	 0.0
 429	 1	 1	 0.0	 28.180813049307154	 10.611	 0.0
 430	 1	 3	 0.265	 29.406065790581376	 9.9036	 0.0
 431	 1	 3	 0.2	 30.6313185318556	 10.611	 0.0
 432	 1	 3	 0.2	 31.856571273129823	 9.9036	 0.0
 433	 1	 3	 0.2	 33.08182401440405	 10.611	 0.0
 434	 1	 3	 0.2	 34.307076755678274	 9.9036	 0.0
 435	 1	 1	 0.0	 35.5323294969525	 10.611	 0.0
 436	 1	 1	 0.0	 36.757582238226725	 9.9036	 0.0
 437	 1	 1	 0.0	 37.98283497950094	 10.611	 0.0
 438	 1	 1	 0.0	 39.20808772077517	 9.9036	 0.0
 439	 1	 3	 0.2	 40.433340462049394	 10.611	 0.0
 440	 1	 3	 0.2	 41.65859320332362	 9.9036	 0.0
 441	 1	 3	 0.2	 42.883845944597844	 10.611	 0.0
 442	 1	 3	 0.265	 44.10909868587207	 9.9036	 0.0
 443	 1	 3	 0.2	 45.33435142714629	 10.611	 0.0
 444	 1	 3	 0.2	 46.55960416842051	 9.9036	 0.0
 445	 1	 1	 0.0	 47.78485690969474	 10.611	 0.0
 446	 1	 1	 0.0	 49.010109650968964	 9.9036	 0.0
 447	 1	 1	 0.0	 50.23536239224318	 10.611	 0.0
 448	 1	 1	 0.0	 51.46061513351741	 9.9036	 0.0
 449	 1	 1	 0.0	 52.68586787479163	 10.611	 0.0
 450	 1	 1	 0.0	 53.91112061606586	 9.9036	 0.0
 451	 1	 1	 0.0	 55.136373357340084	 10.611	 0.0
 452	 1	 1	 0.0	 56.36162609861431	 9.9036	 0.0
 453	 1	 1	 0.0	 57.58687883988853	 10.611	 0.0
 454	 1	 1	 0.0	 58.81213158116275	 9.9036	 0.0
 455	 1	 1	 0.0	 60.03738432243698	 10.611	 0.0
 456	 1	 1	 0.0	 61.2626370637112	 9.9036	 0.0
 457	 1	 3	 0.2	 62.48788980498543	 10.611	 0.0
 458	 1	 3	 0.2	 63.713142546259654	 9.9036	 0.0
 459	 1	 3	 0.265	 64.93839528753387	 10.611	 0.0
 460	 1	 3	 0.2	 66.1636480288081	 9.9036	 0.0
 461	 1	 3	 0.2	 67.38890077008232	 10.611	 0.0
 462	 1	 3	 0.2	 68.61415351135655	 9.9036	 0.0
 463	 1	 1	 0.0	 69.83940625263077	 10.611	 0.0
 464	 1	 1	 0.0	 71.064658993905	 9.9036	 0.0
 465	 1	 1	 0.0	 72.28991173517922	 10.611	 0.0
 466	 1	 1	 0.0	 73.51516447645345	 9.9036	 0.0
 467	 1	 1	 0.0	 74.74041721772765	 10.611	 0.0
 468	 1	 1	 0.0	 75.96566995900189	 9.9036	 0.0
 469	 1	 1	 0.0	 77.1909227002761	 10.611	 0.0
 470	 1	 1	 0.0	 78.41617544155034	 9.9036	 0.0
 471	 1	 1	 0.0	 79.64142818282455	 10.611	 0.0
 472	 1	 1	 0.0	 80.86668092409879	 9.9036	 0.0
 473	 1	 1	 0.0	 82.091933665373	 10.611	 0.0
 474	 1	 1	 0.0	 83.31718640664724	 9.9036	 0.0
 475	 1	 1	 0.0	 84.54243914792146	 10.611	 0.0
 476	 1	 1	 0.0	 85.76769188919569	 9.9036	 0.0
 477	 1	 1	 0.0	 86.99294463046989	 10.611	 0.0
 478	 1	 1	 0.0	 88.21819737174413	 9.9036	 0.0
 479	 1	 1	 0.0	 89.44345011301834	 10.611	 0.0
 480	 1	 1	 0.0	 90.66870285429258	 9.9036	 0.0
 481	 1	 1	 0.0	 91.8939555955668	 10.611	 0.0
 482	 1	 1	 0.0	 93.11920833684103	 9.9036	 0.0
 483	 1	 1	 0.0	 94.34446107811524	 10.611	 0.0
 484	 1	 1	 0.0	 95.56971381938948	 9.9036	 0.0
 485	 1	 1	 0.0	 96.7949665606637	 10.611	 0.0
 486	 1	 1	 -0.115	 98.02021930193793	 9.9036	 0.0
 487	 1	 1	 -0.115	 0.0	 12.733200000000002	 0.0
 488	 1	 3	 0.2	 1.225252741274224	 12.025800000000002	 0.0
 489	 1	 3	 0.2	 2.450505482548448	 12.733200000000002	 0.0
 490	 1	 3	 0.2	 3.675758223822672	 12.025800000000002	 0.0
 491	 1	 3	 0.2	 4.901010965096896	 12.733200000000002	 0.0
 492	 1	 3	 0.2	 6.12626370637112	 12.025800000000002	 0.0